 Q-Chem 5.4, Q-Chem, Inc., Pleasanton, CA (2021)
 Q-Chem 5.4.2 for Intel X86 EM64T Linux

User input:
--------------------------------------------------------------
$molecule
    0 3
C -0.3315884622912717E-01 -0.3582465740572065E-01 -0.6868640359120902E-01
H 0.1806265893376148E+01 0.1327029923497125E+01 0.1588138269239732E+01
H -0.1736933870446310E+01 -0.9202827159878718E+00 0.1267407828304273E+01
H -0.1344803104371244E+01 0.1274705187845912E+01 -0.1204424727904407E+01
H 0.1484494846888461E+01 -0.1255269871070960E+01 -0.1202765340454664E+01
$end

$rem
    JOBTYPE             Force
    !EXCHANGE            HF
    !CORRELATION         CI
    EXCHANGE            BHHLYP !50% HF +  50% Becke88 exchange
    BASIS               6-31+G*
    UNRESTRICTED        True
    MAX_SCF_CYCLES      500
    SYM_IGNORE          True
    SCF_Algorithm       DIIS
    SCF_GUESS           Read

    SPIN_FLIP           True
    SET_Iter            100

    CIS_STATE_DERIV     0
    CIS_TRIPLETS        False
$end

--------------------------------------------------------------

             Standard Nuclear Orientation (Angstroms)
    I     Atom           X                Y                Z
 ----------------------------------------------------------------
    1      C      -0.0331588462    -0.0358246574    -0.0686864036
    2      H       1.8062658934     1.3270299235     1.5881382692
    3      H      -1.7369338704    -0.9202827160     1.2674078283
    4      H      -1.3448031044     1.2747051878    -1.2044247279
    5      H       1.4844948469    -1.2552698711    -1.2027653405
 ----------------------------------------------------------------

    2     -39.8666903099      2.35e-10  Convergence criterion met
 Total energy in the final basis set =      -39.8666903099

                    Orbital Energies (a.u.)
 --------------------------------------------------------------

 Alpha MOs
 -- Occupied --
-10.7397  -0.5914  -0.3957  -0.3853  -0.3739  -0.3478

 Beta MOs
 -- Occupied --
-10.7622  -0.6944  -0.3494  -0.3490

          Ground-State Mulliken Net Atomic Charges

     Atom                 Charge (a.u.)    Spin (a.u.)
  --------------------------------------------------------
      1 C                    -0.105680      -1.537495
      2 H                     0.032744       0.965852
      3 H                     0.027167       0.885760
      4 H                     0.020560       0.822818
      5 H                     0.025208       0.863064
  --------------------------------------------------------
  Sum of atomic charges =    -0.000000

                    Cartesian Multipole Moments
 -----------------------------------------------------------------
    Charge (ESU x 10^10)
                 0.0000
    Dipole Moment (Debye)
         X       0.1820      Y       0.0600      Z       0.1732
       Tot       0.2583
    Quadrupole Moments (Debye-Ang)
        XX     -11.6552     XY       0.9093     YY     -11.3742
        XZ       0.6497     YZ       0.9499     ZZ     -11.7189

 Total job time:  9.60s(wall), 0.52s(cpu)
        *  Thank you very much for using Q-Chem.  Have a nice day.  *
